1526
Atoms. Timestep: 0
Cu 0 0 0
Cu 3.59556 0 0
Cu 7.19616 0 0
Cu 10.7917 0 0
Cu 14.3873 0 0
Cu 17.9828 0 0
Cu 21.5834 0 0
Cu 25.179 0 0
Cu 28.7746 0 0
Cu 32.3752 0 0
Cu 35.9707 0 0
Cu 39.5663 0 0
Cu 43.1618 0 0
Cu 46.7624 0 0
Cu 0 2.54347 0
Cu 3.59556 2.54347 0
Cu 7.19616 2.54347 0
Cu 10.7917 2.54347 0
Cu 14.3873 2.54347 0
Cu 17.9828 2.54347 0
Cu 21.5834 2.54347 0
Cu 25.179 2.54347 0
Cu 28.7746 2.54347 0
Cu 32.3752 2.54347 0
Cu 35.9707 2.54347 0
Cu 39.5663 2.54347 0
Cu 43.1618 2.54347 0
Cu 46.7624 2.54347 0
Cu 0 5.08693 0
Cu 3.59556 5.08693 0
Cu 7.19616 5.08693 0
Cu 10.7917 5.08693 0
Cu 14.3873 5.08693 0
Cu 17.9828 5.08693 0
Cu 21.5834 5.08693 0
Cu 25.179 5.08693 0
Cu 28.7746 5.08693 0
Cu 32.3752 5.08693 0
Cu 35.9707 5.08693 0
Cu 39.5663 5.08693 0
Cu 43.1618 5.08693 0
Cu 46.7624 5.08693 0
Cu 0 7.6304 0
Cu 3.59556 7.6304 0
Cu 7.19616 7.6304 0
Cu 10.7917 7.6304 0
Cu 14.3873 7.6304 0
Cu 17.9828 7.6304 0
Cu 21.5834 7.6304 0
Cu 25.179 7.6304 0
Cu 28.7746 7.6304 0
Cu 32.3752 7.6304 0
Cu 35.9707 7.6304 0
Cu 39.5663 7.6304 0
Cu 43.1618 7.6304 0
Cu 46.7624 7.6304 0
Cu 0 10.1739 0
Cu 3.59556 10.1739 0
Cu 7.19616 10.1739 0
Cu 10.7917 10.1739 0
Cu 14.3873 10.1739 0
Cu 17.9828 10.1739 0
Cu 21.5834 10.1739 0
Cu 25.179 10.1739 0
Cu 28.7746 10.1739 0
Cu 32.3752 10.1739 0
Cu 35.9707 10.1739 0
Cu 39.5663 10.1739 0
Cu 43.1618 10.1739 0
Cu 46.7624 10.1739 0
Cu 0 12.7173 0
Cu 3.59556 12.7173 0
Cu 7.19616 12.7173 0
Cu 10.7917 12.7173 0
Cu 14.3873 12.7173 0
Cu 17.9828 12.7173 0
Cu 21.5834 12.7173 0
Cu 25.179 12.7173 0
Cu 28.7746 12.7173 0
Cu 32.3752 12.7173 0
Cu 35.9707 12.7173 0
Cu 39.5663 12.7173 0
Cu 43.1618 12.7173 0
Cu 46.7624 12.7173 0
Cu 0 15.2608 0
Cu 3.59556 15.2608 0
Cu 7.19616 15.2608 0
Cu 10.7917 15.2608 0
Cu 14.3873 15.2608 0
Cu 17.9828 15.2608 0
Cu 21.5834 15.2608 0
Cu 25.179 15.2608 0
Cu 28.7746 15.2608 0
Cu 32.3752 15.2608 0
Cu 35.9707 15.2608 0
Cu 39.5663 15.2608 0
Cu 43.1618 15.2608 0
Cu 46.7624 15.2608 0
Cu 0 17.8043 0
Cu 3.59556 17.8043 0
Cu 7.19616 17.8043 0
Cu 10.7917 17.8043 0
Cu 14.3873 17.8043 0
Cu 17.9828 17.8043 0
Cu 21.5834 17.8043 0
Cu 25.179 17.8043 0
Cu 28.7746 17.8043 0
Cu 32.3752 17.8043 0
Cu 35.9707 17.8043 0
Cu 39.5663 17.8043 0
Cu 43.1618 17.8043 0
Cu 46.7624 17.8043 0
Cu 0 20.3477 0
Cu 3.59556 20.3477 0
Cu 7.19616 20.3477 0
Cu 10.7917 20.3477 0
Cu 14.3873 20.3477 0
Cu 17.9828 20.3477 0
Cu 21.5834 20.3477 0
Cu 25.179 20.3477 0
Cu 28.7746 20.3477 0
Cu 32.3752 20.3477 0
Cu 35.9707 20.3477 0
Cu 39.5663 20.3477 0
Cu 43.1618 20.3477 0
Cu 46.7624 20.3477 0
Cu 0 22.8912 0
Cu 3.59556 22.8912 0
Cu 7.19616 22.8912 0
Cu 10.7917 22.8912 0
Cu 14.3873 22.8912 0
Cu 17.9828 22.8912 0
Cu 21.5834 22.8912 0
Cu 25.179 22.8912 0
Cu 28.7746 22.8912 0
Cu 32.3752 22.8912 0
Cu 35.9707 22.8912 0
Cu 39.5663 22.8912 0
Cu 43.1618 22.8912 0
Cu 46.7624 22.8912 0
Cu 0 25.4347 0
Cu 3.59556 25.4347 0
Cu 7.19616 25.4347 0
Cu 10.7917 25.4347 0
Cu 14.3873 25.4347 0
Cu 17.9828 25.4347 0
Cu 21.5834 25.4347 0
Cu 25.179 25.4347 0
Cu 28.7746 25.4347 0
Cu 32.3752 25.4347 0
Cu 35.9707 25.4347 0
Cu 39.5663 25.4347 0
Cu 43.1618 25.4347 0
Cu 46.7624 25.4347 0
Cu 0 27.9781 0
Cu 3.59556 27.9781 0
Cu 7.19616 27.9781 0
Cu 10.7917 27.9781 0
Cu 14.3873 27.9781 0
Cu 17.9828 27.9781 0
Cu 21.5834 27.9781 0
Cu 25.179 27.9781 0
Cu 28.7746 27.9781 0
Cu 32.3752 27.9781 0
Cu 35.9707 27.9781 0
Cu 39.5663 27.9781 0
Cu 43.1618 27.9781 0
Cu 46.7624 27.9781 0
Cu 0 30.5216 0
Cu 3.59556 30.5216 0
Cu 7.19616 30.5216 0
Cu 10.7917 30.5216 0
Cu 14.3873 30.5216 0
Cu 17.9828 30.5216 0
Cu 21.5834 30.5216 0
Cu 25.179 30.5216 0
Cu 28.7746 30.5216 0
Cu 32.3752 30.5216 0
Cu 35.9707 30.5216 0
Cu 39.5663 30.5216 0
Cu 43.1618 30.5216 0
Cu 46.7624 30.5216 0
Cu 0 33.065 0
Cu 3.59556 33.065 0
Cu 7.19616 33.065 0
Cu 10.7917 33.065 0
Cu 14.3873 33.065 0
Cu 17.9828 33.065 0
Cu 21.5834 33.065 0
Cu 25.179 33.065 0
Cu 28.7746 33.065 0
Cu 32.3752 33.065 0
Cu 35.9707 33.065 0
Cu 39.5663 33.065 0
Cu 43.1618 33.065 0
Cu 46.7624 33.065 0
Cu 0 35.6085 0
Cu 3.59556 35.6085 0
Cu 7.19616 35.6085 0
Cu 10.7917 35.6085 0
Cu 14.3873 35.6085 0
Cu 17.9828 35.6085 0
Cu 21.5834 35.6085 0
Cu 25.179 35.6085 0
Cu 28.7746 35.6085 0
Cu 32.3752 35.6085 0
Cu 35.9707 35.6085 0
Cu 39.5663 35.6085 0
Cu 43.1618 35.6085 0
Cu 46.7624 35.6085 0
Cu 0 38.152 0
Cu 3.59556 38.152 0
Cu 7.19616 38.152 0
Cu 10.7917 38.152 0
Cu 14.3873 38.152 0
Cu 17.9828 38.152 0
Cu 21.5834 38.152 0
Cu 25.179 38.152 0
Cu 28.7746 38.152 0
Cu 32.3752 38.152 0
Cu 35.9707 38.152 0
Cu 39.5663 38.152 0
Cu 43.1618 38.152 0
Cu 46.7624 38.152 0
Cu 0 40.6954 0
Cu 3.59556 40.6954 0
Cu 7.19616 40.6954 0
Cu 10.7917 40.6954 0
Cu 14.3873 40.6954 0
Cu 17.9828 40.6954 0
Cu 21.5834 40.6954 0
Cu 25.179 40.6954 0
Cu 28.7746 40.6954 0
Cu 32.3752 40.6954 0
Cu 35.9707 40.6954 0
Cu 39.5663 40.6954 0
Cu 43.1618 40.6954 0
Cu 46.7624 40.6954 0
Cu 0 43.2389 0
Cu 3.59556 43.2389 0
Cu 7.19616 43.2389 0
Cu 10.7917 43.2389 0
Cu 14.3873 43.2389 0
Cu 17.9828 43.2389 0
Cu 21.5834 43.2389 0
Cu 25.179 43.2389 0
Cu 28.7746 43.2389 0
Cu 32.3752 43.2389 0
Cu 35.9707 43.2389 0
Cu 39.5663 43.2389 0
Cu 43.1618 43.2389 0
Cu 46.7624 43.2389 0
Cu 0 45.7824 0
Cu 3.59556 45.7824 0
Cu 7.19616 45.7824 0
Cu 10.7917 45.7824 0
Cu 14.3873 45.7824 0
Cu 17.9828 45.7824 0
Cu 21.5834 45.7824 0
Cu 25.179 45.7824 0
Cu 28.7746 45.7824 0
Cu 32.3752 45.7824 0
Cu 35.9707 45.7824 0
Cu 39.5663 45.7824 0
Cu 43.1618 45.7824 0
Cu 46.7624 45.7824 0
Cu 0 48.3258 0
Cu 3.59556 48.3258 0
Cu 7.19616 48.3258 0
Cu 10.7917 48.3258 0
Cu 14.3873 48.3258 0
Cu 17.9828 48.3258 0
Cu 21.5834 48.3258 0
Cu 25.179 48.3258 0
Cu 28.7746 48.3258 0
Cu 32.3752 48.3258 0
Cu 35.9707 48.3258 0
Cu 39.5663 48.3258 0
Cu 43.1618 48.3258 0
Cu 46.7624 48.3258 0
Cu 1.79778 1.27173 1.27
Cu 5.39334 1.27173 1.27
Cu 8.99394 1.27173 1.27
Cu 12.5895 1.27173 1.27
Cu 16.1851 1.27173 1.27
Cu 19.7857 1.27173 1.27
Cu 23.3812 1.27173 1.27
Cu 26.9768 1.27173 1.27
Cu 30.5723 1.27173 1.27
Cu 34.1729 1.27173 1.27
Cu 37.7685 1.27173 1.27
Cu 41.3641 1.27173 1.27
Cu 44.9647 1.27173 1.27
Cu 48.5602 1.27173 1.27
Cu 1.79778 3.8152 1.27
Cu 5.39334 3.8152 1.27
Cu 8.99394 3.8152 1.27
Cu 12.5895 3.8152 1.27
Cu 16.1851 3.8152 1.27
Cu 19.7857 3.8152 1.27
Cu 23.3812 3.8152 1.27
Cu 26.9768 3.8152 1.27
Cu 30.5723 3.8152 1.27
Cu 34.1729 3.8152 1.27
Cu 37.7685 3.8152 1.27
Cu 41.3641 3.8152 1.27
Cu 44.9647 3.8152 1.27
Cu 48.5602 3.8152 1.27
Cu 1.79778 6.35866 1.27
Cu 5.39334 6.35866 1.27
Cu 8.99394 6.35866 1.27
Cu 12.5895 6.35866 1.27
Cu 16.1851 6.35866 1.27
Cu 19.7857 6.35866 1.27
Cu 23.3812 6.35866 1.27
Cu 26.9768 6.35866 1.27
Cu 30.5723 6.35866 1.27
Cu 34.1729 6.35866 1.27
Cu 37.7685 6.35866 1.27
Cu 41.3641 6.35866 1.27
Cu 44.9647 6.35866 1.27
Cu 48.5602 6.35866 1.27
Cu 1.79778 8.90213 1.27
Cu 5.39334 8.90213 1.27
Cu 8.99394 8.90213 1.27
Cu 12.5895 8.90213 1.27
Cu 16.1851 8.90213 1.27
Cu 19.7857 8.90213 1.27
Cu 23.3812 8.90213 1.27
Cu 26.9768 8.90213 1.27
Cu 30.5723 8.90213 1.27
Cu 34.1729 8.90213 1.27
Cu 37.7685 8.90213 1.27
Cu 41.3641 8.90213 1.27
Cu 44.9647 8.90213 1.27
Cu 48.5602 8.90213 1.27
Cu 1.79778 11.4456 1.27
Cu 5.39334 11.4456 1.27
Cu 8.99394 11.4456 1.27
Cu 12.5895 11.4456 1.27
Cu 16.1851 11.4456 1.27
Cu 19.7857 11.4456 1.27
Cu 23.3812 11.4456 1.27
Cu 26.9768 11.4456 1.27
Cu 30.5723 11.4456 1.27
Cu 34.1729 11.4456 1.27
Cu 37.7685 11.4456 1.27
Cu 41.3641 11.4456 1.27
Cu 44.9647 11.4456 1.27
Cu 48.5602 11.4456 1.27
Cu 1.79778 13.9891 1.27
Cu 5.39334 13.9891 1.27
Cu 8.99394 13.9891 1.27
Cu 12.5895 13.9891 1.27
Cu 16.1851 13.9891 1.27
Cu 19.7857 13.9891 1.27
Cu 23.3812 13.9891 1.27
Cu 26.9768 13.9891 1.27
Cu 30.5723 13.9891 1.27
Cu 34.1729 13.9891 1.27
Cu 37.7685 13.9891 1.27
Cu 41.3641 13.9891 1.27
Cu 44.9647 13.9891 1.27
Cu 48.5602 13.9891 1.27
Cu 1.79778 16.5325 1.27
Cu 5.39334 16.5325 1.27
Cu 8.99394 16.5325 1.27
Cu 12.5895 16.5325 1.27
Cu 16.1851 16.5325 1.27
Cu 19.7857 16.5325 1.27
Cu 23.3812 16.5325 1.27
Cu 26.9768 16.5325 1.27
Cu 30.5723 16.5325 1.27
Cu 34.1729 16.5325 1.27
Cu 37.7685 16.5325 1.27
Cu 41.3641 16.5325 1.27
Cu 44.9647 16.5325 1.27
Cu 48.5602 16.5325 1.27
Cu 1.79778 19.076 1.27
Cu 5.39334 19.076 1.27
Cu 8.99394 19.076 1.27
Cu 12.5895 19.076 1.27
Cu 16.1851 19.076 1.27
Cu 19.7857 19.076 1.27
Cu 23.3812 19.076 1.27
Cu 26.9768 19.076 1.27
Cu 30.5723 19.076 1.27
Cu 34.1729 19.076 1.27
Cu 37.7685 19.076 1.27
Cu 41.3641 19.076 1.27
Cu 44.9647 19.076 1.27
Cu 48.5602 19.076 1.27
Cu 1.79778 21.6195 1.27
Cu 5.39334 21.6195 1.27
Cu 8.99394 21.6195 1.27
Cu 12.5895 21.6195 1.27
Cu 16.1851 21.6195 1.27
Cu 19.7857 21.6195 1.27
Cu 23.3812 21.6195 1.27
Cu 26.9768 21.6195 1.27
Cu 30.5723 21.6195 1.27
Cu 34.1729 21.6195 1.27
Cu 37.7685 21.6195 1.27
Cu 41.3641 21.6195 1.27
Cu 44.9647 21.6195 1.27
Cu 48.5602 21.6195 1.27
Cu 1.79778 24.1629 1.27
Cu 5.39334 24.1629 1.27
Cu 8.99394 24.1629 1.27
Cu 12.5895 24.1629 1.27
Cu 16.1851 24.1629 1.27
Cu 19.7857 24.1629 1.27
Cu 23.3812 24.1629 1.27
Cu 26.9768 24.1629 1.27
Cu 30.5723 24.1629 1.27
Cu 34.1729 24.1629 1.27
Cu 37.7685 24.1629 1.27
Cu 41.3641 24.1629 1.27
Cu 44.9647 24.1629 1.27
Cu 48.5602 24.1629 1.27
Cu 1.79778 26.7064 1.27
Cu 5.39334 26.7064 1.27
Cu 8.99394 26.7064 1.27
Cu 12.5895 26.7064 1.27
Cu 16.1851 26.7064 1.27
Cu 19.7857 26.7064 1.27
Cu 23.3812 26.7064 1.27
Cu 26.9768 26.7064 1.27
Cu 30.5723 26.7064 1.27
Cu 34.1729 26.7064 1.27
Cu 37.7685 26.7064 1.27
Cu 41.3641 26.7064 1.27
Cu 44.9647 26.7064 1.27
Cu 48.5602 26.7064 1.27
Cu 1.79778 29.2498 1.27
Cu 5.39334 29.2498 1.27
Cu 8.99394 29.2498 1.27
Cu 12.5895 29.2498 1.27
Cu 16.1851 29.2498 1.27
Cu 19.7857 29.2498 1.27
Cu 23.3812 29.2498 1.27
Cu 26.9768 29.2498 1.27
Cu 30.5723 29.2498 1.27
Cu 34.1729 29.2498 1.27
Cu 37.7685 29.2498 1.27
Cu 41.3641 29.2498 1.27
Cu 44.9647 29.2498 1.27
Cu 48.5602 29.2498 1.27
Cu 1.79778 31.7933 1.27
Cu 5.39334 31.7933 1.27
Cu 8.99394 31.7933 1.27
Cu 12.5895 31.7933 1.27
Cu 16.1851 31.7933 1.27
Cu 19.7857 31.7933 1.27
Cu 23.3812 31.7933 1.27
Cu 26.9768 31.7933 1.27
Cu 30.5723 31.7933 1.27
Cu 34.1729 31.7933 1.27
Cu 37.7685 31.7933 1.27
Cu 41.3641 31.7933 1.27
Cu 44.9647 31.7933 1.27
Cu 48.5602 31.7933 1.27
Cu 1.79778 34.3368 1.27
Cu 5.39334 34.3368 1.27
Cu 8.99394 34.3368 1.27
Cu 12.5895 34.3368 1.27
Cu 16.1851 34.3368 1.27
Cu 19.7857 34.3368 1.27
Cu 23.3812 34.3368 1.27
Cu 26.9768 34.3368 1.27
Cu 30.5723 34.3368 1.27
Cu 34.1729 34.3368 1.27
Cu 37.7685 34.3368 1.27
Cu 41.3641 34.3368 1.27
Cu 44.9647 34.3368 1.27
Cu 48.5602 34.3368 1.27
Cu 1.79778 36.8802 1.27
Cu 5.39334 36.8802 1.27
Cu 8.99394 36.8802 1.27
Cu 12.5895 36.8802 1.27
Cu 16.1851 36.8802 1.27
Cu 19.7857 36.8802 1.27
Cu 23.3812 36.8802 1.27
Cu 26.9768 36.8802 1.27
Cu 30.5723 36.8802 1.27
Cu 34.1729 36.8802 1.27
Cu 37.7685 36.8802 1.27
Cu 41.3641 36.8802 1.27
Cu 44.9647 36.8802 1.27
Cu 48.5602 36.8802 1.27
Cu 1.79778 39.4237 1.27
Cu 5.39334 39.4237 1.27
Cu 8.99394 39.4237 1.27
Cu 12.5895 39.4237 1.27
Cu 16.1851 39.4237 1.27
Cu 19.7857 39.4237 1.27
Cu 23.3812 39.4237 1.27
Cu 26.9768 39.4237 1.27
Cu 30.5723 39.4237 1.27
Cu 34.1729 39.4237 1.27
Cu 37.7685 39.4237 1.27
Cu 41.3641 39.4237 1.27
Cu 44.9647 39.4237 1.27
Cu 48.5602 39.4237 1.27
Cu 1.79778 41.9672 1.27
Cu 5.39334 41.9672 1.27
Cu 8.99394 41.9672 1.27
Cu 12.5895 41.9672 1.27
Cu 16.1851 41.9672 1.27
Cu 19.7857 41.9672 1.27
Cu 23.3812 41.9672 1.27
Cu 26.9768 41.9672 1.27
Cu 30.5723 41.9672 1.27
Cu 34.1729 41.9672 1.27
Cu 37.7685 41.9672 1.27
Cu 41.3641 41.9672 1.27
Cu 44.9647 41.9672 1.27
Cu 48.5602 41.9672 1.27
Cu 1.79778 44.5106 1.27
Cu 5.39334 44.5106 1.27
Cu 8.99394 44.5106 1.27
Cu 12.5895 44.5106 1.27
Cu 16.1851 44.5106 1.27
Cu 19.7857 44.5106 1.27
Cu 23.3812 44.5106 1.27
Cu 26.9768 44.5106 1.27
Cu 30.5723 44.5106 1.27
Cu 34.1729 44.5106 1.27
Cu 37.7685 44.5106 1.27
Cu 41.3641 44.5106 1.27
Cu 44.9647 44.5106 1.27
Cu 48.5602 44.5106 1.27
Cu 1.79778 47.0541 1.27
Cu 5.39334 47.0541 1.27
Cu 8.99394 47.0541 1.27
Cu 12.5895 47.0541 1.27
Cu 16.1851 47.0541 1.27
Cu 19.7857 47.0541 1.27
Cu 23.3812 47.0541 1.27
Cu 26.9768 47.0541 1.27
Cu 30.5723 47.0541 1.27
Cu 34.1729 47.0541 1.27
Cu 37.7685 47.0541 1.27
Cu 41.3641 47.0541 1.27
Cu 44.9647 47.0541 1.27
Cu 48.5602 47.0541 1.27
Cu 1.79778 49.5976 1.27
Cu 5.39334 49.5976 1.27
Cu 8.99394 49.5976 1.27
Cu 12.5895 49.5976 1.27
Cu 16.1851 49.5976 1.27
Cu 19.7857 49.5976 1.27
Cu 23.3812 49.5976 1.27
Cu 26.9768 49.5976 1.27
Cu 30.5723 49.5976 1.27
Cu 34.1729 49.5976 1.27
Cu 37.7685 49.5976 1.27
Cu 41.3641 49.5976 1.27
Cu 44.9647 49.5976 1.27
Cu 48.5602 49.5976 1.27
Cu 0 0 2.545
Cu 3.59556 0 2.545
Cu 7.19616 0 2.545
Cu 10.7917 0 2.545
Cu 14.3873 0 2.545
Cu 17.9828 0 2.545
Cu 21.5834 0 2.545
Cu 25.179 0 2.545
Cu 28.7746 0 2.545
Cu 32.3752 0 2.545
Cu 35.9707 0 2.545
Cu 39.5663 0 2.545
Cu 43.1618 0 2.545
Cu 46.7624 0 2.545
Cu 0 2.54347 2.545
Cu 3.59556 2.54347 2.545
Cu 7.19616 2.54347 2.545
Cu 10.7917 2.54347 2.545
Cu 14.3873 2.54347 2.545
Cu 17.9828 2.54347 2.545
Cu 21.5834 2.54347 2.545
Cu 25.179 2.54347 2.545
Cu 28.7746 2.54347 2.545
Cu 32.3752 2.54347 2.545
Cu 35.9707 2.54347 2.545
Cu 39.5663 2.54347 2.545
Cu 43.1618 2.54347 2.545
Cu 46.7624 2.54347 2.545
Cu 0 5.08693 2.545
Cu 3.59556 5.08693 2.545
Cu 7.19616 5.08693 2.545
Cu 10.7917 5.08693 2.545
Cu 14.3873 5.08693 2.545
Cu 17.9828 5.08693 2.545
Cu 21.5834 5.08693 2.545
Cu 25.179 5.08693 2.545
Cu 28.7746 5.08693 2.545
Cu 32.3752 5.08693 2.545
Cu 35.9707 5.08693 2.545
Cu 39.5663 5.08693 2.545
Cu 43.1618 5.08693 2.545
Cu 46.7624 5.08693 2.545
Cu 0 7.6304 2.545
Cu 3.59556 7.6304 2.545
Cu 7.19616 7.6304 2.545
Cu 10.7917 7.6304 2.545
Cu 14.3873 7.6304 2.545
Cu 17.9828 7.6304 2.545
Cu 21.5834 7.6304 2.545
Cu 25.179 7.6304 2.545
Cu 28.7746 7.6304 2.545
Cu 32.3752 7.6304 2.545
Cu 35.9707 7.6304 2.545
Cu 39.5663 7.6304 2.545
Cu 43.1618 7.6304 2.545
Cu 46.7624 7.6304 2.545
Cu 0 10.1739 2.545
Cu 3.59556 10.1739 2.545
Cu 7.19616 10.1739 2.545
Cu 10.7917 10.1739 2.545
Cu 14.3873 10.1739 2.545
Cu 17.9828 10.1739 2.545
Cu 21.5834 10.1739 2.545
Cu 25.179 10.1739 2.545
Cu 28.7746 10.1739 2.545
Cu 32.3752 10.1739 2.545
Cu 35.9707 10.1739 2.545
Cu 39.5663 10.1739 2.545
Cu 43.1618 10.1739 2.545
Cu 46.7624 10.1739 2.545
Cu 0 12.7173 2.545
Cu 3.59556 12.7173 2.545
Cu 7.19616 12.7173 2.545
Cu 10.7917 12.7173 2.545
Cu 14.3873 12.7173 2.545
Cu 17.9828 12.7173 2.545
Cu 21.5834 12.7173 2.545
Cu 25.179 12.7173 2.545
Cu 28.7746 12.7173 2.545
Cu 32.3752 12.7173 2.545
Cu 35.9707 12.7173 2.545
Cu 39.5663 12.7173 2.545
Cu 43.1618 12.7173 2.545
Cu 46.7624 12.7173 2.545
Cu 0 15.2608 2.545
Cu 3.59556 15.2608 2.545
Cu 7.19616 15.2608 2.545
Cu 10.7917 15.2608 2.545
Cu 14.3873 15.2608 2.545
Cu 17.9828 15.2608 2.545
Cu 21.5834 15.2608 2.545
Cu 25.179 15.2608 2.545
Cu 28.7746 15.2608 2.545
Cu 32.3752 15.2608 2.545
Cu 35.9707 15.2608 2.545
Cu 39.5663 15.2608 2.545
Cu 43.1618 15.2608 2.545
Cu 46.7624 15.2608 2.545
Cu 0 17.8043 2.545
Cu 3.59556 17.8043 2.545
Cu 7.19616 17.8043 2.545
Cu 10.7917 17.8043 2.545
Cu 14.3873 17.8043 2.545
Cu 17.9828 17.8043 2.545
Cu 21.5834 17.8043 2.545
Cu 25.179 17.8043 2.545
Cu 28.7746 17.8043 2.545
Cu 32.3752 17.8043 2.545
Cu 35.9707 17.8043 2.545
Cu 39.5663 17.8043 2.545
Cu 43.1618 17.8043 2.545
Cu 46.7624 17.8043 2.545
Cu 0 20.3477 2.545
Cu 3.59556 20.3477 2.545
Cu 7.19616 20.3477 2.545
Cu 10.7917 20.3477 2.545
Cu 14.3873 20.3477 2.545
Cu 17.9828 20.3477 2.545
Cu 21.5834 20.3477 2.545
Cu 25.179 20.3477 2.545
Cu 28.7746 20.3477 2.545
Cu 32.3752 20.3477 2.545
Cu 35.9707 20.3477 2.545
Cu 39.5663 20.3477 2.545
Cu 43.1618 20.3477 2.545
Cu 46.7624 20.3477 2.545
Cu 0 22.8912 2.545
Cu 3.59556 22.8912 2.545
Cu 7.19616 22.8912 2.545
Cu 10.7917 22.8912 2.545
Cu 14.3873 22.8912 2.545
Cu 17.9828 22.8912 2.545
Cu 21.5834 22.8912 2.545
Cu 25.179 22.8912 2.545
Cu 28.7746 22.8912 2.545
Cu 32.3752 22.8912 2.545
Cu 35.9707 22.8912 2.545
Cu 39.5663 22.8912 2.545
Cu 43.1618 22.8912 2.545
Cu 46.7624 22.8912 2.545
Cu 0 25.4347 2.545
Cu 3.59556 25.4347 2.545
Cu 7.19616 25.4347 2.545
Cu 10.7917 25.4347 2.545
Cu 14.3873 25.4347 2.545
Cu 17.9828 25.4347 2.545
Cu 21.5834 25.4347 2.545
Cu 25.179 25.4347 2.545
Cu 28.7746 25.4347 2.545
Cu 32.3752 25.4347 2.545
Cu 35.9707 25.4347 2.545
Cu 39.5663 25.4347 2.545
Cu 43.1618 25.4347 2.545
Cu 46.7624 25.4347 2.545
Cu 0 27.9781 2.545
Cu 3.59556 27.9781 2.545
Cu 7.19616 27.9781 2.545
Cu 10.7917 27.9781 2.545
Cu 14.3873 27.9781 2.545
Cu 17.9828 27.9781 2.545
Cu 21.5834 27.9781 2.545
Cu 25.179 27.9781 2.545
Cu 28.7746 27.9781 2.545
Cu 32.3752 27.9781 2.545
Cu 35.9707 27.9781 2.545
Cu 39.5663 27.9781 2.545
Cu 43.1618 27.9781 2.545
Cu 46.7624 27.9781 2.545
Cu 0 30.5216 2.545
Cu 3.59556 30.5216 2.545
Cu 7.19616 30.5216 2.545
Cu 10.7917 30.5216 2.545
Cu 14.3873 30.5216 2.545
Cu 17.9828 30.5216 2.545
Cu 21.5834 30.5216 2.545
Cu 25.179 30.5216 2.545
Cu 28.7746 30.5216 2.545
Cu 32.3752 30.5216 2.545
Cu 35.9707 30.5216 2.545
Cu 39.5663 30.5216 2.545
Cu 43.1618 30.5216 2.545
Cu 46.7624 30.5216 2.545
Cu 0 33.065 2.545
Cu 3.59556 33.065 2.545
Cu 7.19616 33.065 2.545
Cu 10.7917 33.065 2.545
Cu 14.3873 33.065 2.545
Cu 17.9828 33.065 2.545
Cu 21.5834 33.065 2.545
Cu 25.179 33.065 2.545
Cu 28.7746 33.065 2.545
Cu 32.3752 33.065 2.545
Cu 35.9707 33.065 2.545
Cu 39.5663 33.065 2.545
Cu 43.1618 33.065 2.545
Cu 46.7624 33.065 2.545
Cu 0 35.6085 2.545
Cu 3.59556 35.6085 2.545
Cu 7.19616 35.6085 2.545
Cu 10.7917 35.6085 2.545
Cu 14.3873 35.6085 2.545
Cu 17.9828 35.6085 2.545
Cu 21.5834 35.6085 2.545
Cu 25.179 35.6085 2.545
Cu 28.7746 35.6085 2.545
Cu 32.3752 35.6085 2.545
Cu 35.9707 35.6085 2.545
Cu 39.5663 35.6085 2.545
Cu 43.1618 35.6085 2.545
Cu 46.7624 35.6085 2.545
Cu 0 38.152 2.545
Cu 3.59556 38.152 2.545
Cu 7.19616 38.152 2.545
Cu 10.7917 38.152 2.545
Cu 14.3873 38.152 2.545
Cu 17.9828 38.152 2.545
Cu 21.5834 38.152 2.545
Cu 25.179 38.152 2.545
Cu 28.7746 38.152 2.545
Cu 32.3752 38.152 2.545
Cu 35.9707 38.152 2.545
Cu 39.5663 38.152 2.545
Cu 43.1618 38.152 2.545
Cu 46.7624 38.152 2.545
Cu 0 40.6954 2.545
Cu 3.59556 40.6954 2.545
Cu 7.19616 40.6954 2.545
Cu 10.7917 40.6954 2.545
Cu 14.3873 40.6954 2.545
Cu 17.9828 40.6954 2.545
Cu 21.5834 40.6954 2.545
Cu 25.179 40.6954 2.545
Cu 28.7746 40.6954 2.545
Cu 32.3752 40.6954 2.545
Cu 35.9707 40.6954 2.545
Cu 39.5663 40.6954 2.545
Cu 43.1618 40.6954 2.545
Cu 46.7624 40.6954 2.545
Cu 0 43.2389 2.545
Cu 3.59556 43.2389 2.545
Cu 7.19616 43.2389 2.545
Cu 10.7917 43.2389 2.545
Cu 14.3873 43.2389 2.545
Cu 17.9828 43.2389 2.545
Cu 21.5834 43.2389 2.545
Cu 25.179 43.2389 2.545
Cu 28.7746 43.2389 2.545
Cu 32.3752 43.2389 2.545
Cu 35.9707 43.2389 2.545
Cu 39.5663 43.2389 2.545
Cu 43.1618 43.2389 2.545
Cu 46.7624 43.2389 2.545
Cu 0 45.7824 2.545
Cu 3.59556 45.7824 2.545
Cu 7.19616 45.7824 2.545
Cu 10.7917 45.7824 2.545
Cu 14.3873 45.7824 2.545
Cu 17.9828 45.7824 2.545
Cu 21.5834 45.7824 2.545
Cu 25.179 45.7824 2.545
Cu 28.7746 45.7824 2.545
Cu 32.3752 45.7824 2.545
Cu 35.9707 45.7824 2.545
Cu 39.5663 45.7824 2.545
Cu 43.1618 45.7824 2.545
Cu 46.7624 45.7824 2.545
Cu 0 48.3258 2.545
Cu 3.59556 48.3258 2.545
Cu 7.19616 48.3258 2.545
Cu 10.7917 48.3258 2.545
Cu 14.3873 48.3258 2.545
Cu 17.9828 48.3258 2.545
Cu 21.5834 48.3258 2.545
Cu 25.179 48.3258 2.545
Cu 28.7746 48.3258 2.545
Cu 32.3752 48.3258 2.545
Cu 35.9707 48.3258 2.545
Cu 39.5663 48.3258 2.545
Cu 43.1618 48.3258 2.545
Cu 46.7624 48.3258 2.545
Cu 1.79778 1.27173 3.815
Cu 5.39334 1.27173 3.815
Cu 8.99394 1.27173 3.815
Cu 12.5895 1.27173 3.815
Cu 16.1851 1.27173 3.815
Cu 19.7857 1.27173 3.815
Cu 23.3812 1.27173 3.815
Cu 26.9768 1.27173 3.815
Cu 30.5723 1.27173 3.815
Cu 34.1729 1.27173 3.815
Cu 37.7685 1.27173 3.815
Cu 41.3641 1.27173 3.815
Cu 44.9647 1.27173 3.815
Cu 48.5602 1.27173 3.815
Cu 1.79778 3.8152 3.815
Cu 5.39334 3.8152 3.815
Cu 8.99394 3.8152 3.815
Cu 12.5895 3.8152 3.815
Cu 16.1851 3.8152 3.815
Cu 19.7857 3.8152 3.815
Cu 23.3812 3.8152 3.815
Cu 26.9768 3.8152 3.815
Cu 30.5723 3.8152 3.815
Cu 34.1729 3.8152 3.815
Cu 37.7685 3.8152 3.815
Cu 41.3641 3.8152 3.815
Cu 44.9647 3.8152 3.815
Cu 48.5602 3.8152 3.815
Cu 1.79778 6.35866 3.815
Cu 5.39334 6.35866 3.815
Cu 8.99394 6.35866 3.815
Cu 12.5895 6.35866 3.815
Cu 16.1851 6.35866 3.815
Cu 19.7857 6.35866 3.815
Cu 23.3812 6.35866 3.815
Cu 26.9768 6.35866 3.815
Cu 30.5723 6.35866 3.815
Cu 34.1729 6.35866 3.815
Cu 37.7685 6.35866 3.815
Cu 41.3641 6.35866 3.815
Cu 44.9647 6.35866 3.815
Cu 48.5602 6.35866 3.815
Cu 1.79778 8.90213 3.815
Cu 5.39334 8.90213 3.815
Cu 8.99394 8.90213 3.815
Cu 12.5895 8.90213 3.815
Cu 16.1851 8.90213 3.815
Cu 19.7857 8.90213 3.815
Cu 23.3812 8.90213 3.815
Cu 26.9768 8.90213 3.815
Cu 30.5723 8.90213 3.815
Cu 34.1729 8.90213 3.815
Cu 37.7685 8.90213 3.815
Cu 41.3641 8.90213 3.815
Cu 44.9647 8.90213 3.815
Cu 48.5602 8.90213 3.815
Cu 1.79778 11.4456 3.815
Cu 5.39334 11.4456 3.815
Cu 8.99394 11.4456 3.815
Cu 12.5895 11.4456 3.815
Cu 16.1851 11.4456 3.815
Cu 19.7857 11.4456 3.815
Cu 23.3812 11.4456 3.815
Cu 26.9768 11.4456 3.815
Cu 30.5723 11.4456 3.815
Cu 34.1729 11.4456 3.815
Cu 37.7685 11.4456 3.815
Cu 41.3641 11.4456 3.815
Cu 44.9647 11.4456 3.815
Cu 48.5602 11.4456 3.815
Cu 1.79778 13.9891 3.815
Cu 5.39334 13.9891 3.815
Cu 8.99394 13.9891 3.815
Cu 12.5895 13.9891 3.815
Cu 16.1851 13.9891 3.815
Cu 19.7857 13.9891 3.815
Cu 23.3812 13.9891 3.815
Cu 26.9768 13.9891 3.815
Cu 30.5723 13.9891 3.815
Cu 34.1729 13.9891 3.815
Cu 37.7685 13.9891 3.815
Cu 41.3641 13.9891 3.815
Cu 44.9647 13.9891 3.815
Cu 48.5602 13.9891 3.815
Cu 1.79778 16.5325 3.815
Cu 5.39334 16.5325 3.815
Cu 8.99394 16.5325 3.815
Cu 12.5895 16.5325 3.815
Cu 16.1851 16.5325 3.815
Cu 19.7857 16.5325 3.815
Cu 23.3812 16.5325 3.815
Cu 26.9768 16.5325 3.815
Cu 30.5723 16.5325 3.815
Cu 34.1729 16.5325 3.815
Cu 37.7685 16.5325 3.815
Cu 41.3641 16.5325 3.815
Cu 44.9647 16.5325 3.815
Cu 48.5602 16.5325 3.815
Cu 1.79778 19.076 3.815
Cu 5.39334 19.076 3.815
Cu 8.99394 19.076 3.815
Cu 12.5895 19.076 3.815
Cu 16.1851 19.076 3.815
Cu 19.7857 19.076 3.815
Cu 23.3812 19.076 3.815
Cu 26.9768 19.076 3.815
Cu 30.5723 19.076 3.815
Cu 34.1729 19.076 3.815
Cu 37.7685 19.076 3.815
Cu 41.3641 19.076 3.815
Cu 44.9647 19.076 3.815
Cu 48.5602 19.076 3.815
Cu 1.79778 21.6195 3.815
Cu 5.39334 21.6195 3.815
Cu 8.99394 21.6195 3.815
Cu 12.5895 21.6195 3.815
Cu 16.1851 21.6195 3.815
Cu 19.7857 21.6195 3.815
Cu 23.3812 21.6195 3.815
Cu 26.9768 21.6195 3.815
Cu 30.5723 21.6195 3.815
Cu 34.1729 21.6195 3.815
Cu 37.7685 21.6195 3.815
Cu 41.3641 21.6195 3.815
Cu 44.9647 21.6195 3.815
Cu 48.5602 21.6195 3.815
Cu 1.79778 24.1629 3.815
Cu 5.39334 24.1629 3.815
Cu 8.99394 24.1629 3.815
Cu 12.5895 24.1629 3.815
Cu 16.1851 24.1629 3.815
Cu 19.7857 24.1629 3.815
Cu 23.3812 24.1629 3.815
Cu 26.9768 24.1629 3.815
Cu 30.5723 24.1629 3.815
Cu 34.1729 24.1629 3.815
Cu 37.7685 24.1629 3.815
Cu 41.3641 24.1629 3.815
Cu 44.9647 24.1629 3.815
Cu 48.5602 24.1629 3.815
Cu 1.79778 26.7064 3.815
Cu 5.39334 26.7064 3.815
Cu 8.99394 26.7064 3.815
Cu 12.5895 26.7064 3.815
Cu 16.1851 26.7064 3.815
Cu 19.7857 26.7064 3.815
Cu 23.3812 26.7064 3.815
Cu 26.9768 26.7064 3.815
Cu 30.5723 26.7064 3.815
Cu 34.1729 26.7064 3.815
Cu 37.7685 26.7064 3.815
Cu 41.3641 26.7064 3.815
Cu 44.9647 26.7064 3.815
Cu 48.5602 26.7064 3.815
Cu 1.79778 29.2498 3.815
Cu 5.39334 29.2498 3.815
Cu 8.99394 29.2498 3.815
Cu 12.5895 29.2498 3.815
Cu 16.1851 29.2498 3.815
Cu 19.7857 29.2498 3.815
Cu 23.3812 29.2498 3.815
Cu 26.9768 29.2498 3.815
Cu 30.5723 29.2498 3.815
Cu 34.1729 29.2498 3.815
Cu 37.7685 29.2498 3.815
Cu 41.3641 29.2498 3.815
Cu 44.9647 29.2498 3.815
Cu 48.5602 29.2498 3.815
Cu 1.79778 31.7933 3.815
Cu 5.39334 31.7933 3.815
Cu 8.99394 31.7933 3.815
Cu 12.5895 31.7933 3.815
Cu 16.1851 31.7933 3.815
Cu 19.7857 31.7933 3.815
Cu 23.3812 31.7933 3.815
Cu 26.9768 31.7933 3.815
Cu 30.5723 31.7933 3.815
Cu 34.1729 31.7933 3.815
Cu 37.7685 31.7933 3.815
Cu 41.3641 31.7933 3.815
Cu 44.9647 31.7933 3.815
Cu 48.5602 31.7933 3.815
Cu 1.79778 34.3368 3.815
Cu 5.39334 34.3368 3.815
Cu 8.99394 34.3368 3.815
Cu 12.5895 34.3368 3.815
Cu 16.1851 34.3368 3.815
Cu 19.7857 34.3368 3.815
Cu 23.3812 34.3368 3.815
Cu 26.9768 34.3368 3.815
Cu 30.5723 34.3368 3.815
Cu 34.1729 34.3368 3.815
Cu 37.7685 34.3368 3.815
Cu 41.3641 34.3368 3.815
Cu 44.9647 34.3368 3.815
Cu 48.5602 34.3368 3.815
Cu 1.79778 36.8802 3.815
Cu 5.39334 36.8802 3.815
Cu 8.99394 36.8802 3.815
Cu 12.5895 36.8802 3.815
Cu 16.1851 36.8802 3.815
Cu 19.7857 36.8802 3.815
Cu 23.3812 36.8802 3.815
Cu 26.9768 36.8802 3.815
Cu 30.5723 36.8802 3.815
Cu 34.1729 36.8802 3.815
Cu 37.7685 36.8802 3.815
Cu 41.3641 36.8802 3.815
Cu 44.9647 36.8802 3.815
Cu 48.5602 36.8802 3.815
Cu 1.79778 39.4237 3.815
Cu 5.39334 39.4237 3.815
Cu 8.99394 39.4237 3.815
Cu 12.5895 39.4237 3.815
Cu 16.1851 39.4237 3.815
Cu 19.7857 39.4237 3.815
Cu 23.3812 39.4237 3.815
Cu 26.9768 39.4237 3.815
Cu 30.5723 39.4237 3.815
Cu 34.1729 39.4237 3.815
Cu 37.7685 39.4237 3.815
Cu 41.3641 39.4237 3.815
Cu 44.9647 39.4237 3.815
Cu 48.5602 39.4237 3.815
Cu 1.79778 41.9672 3.815
Cu 5.39334 41.9672 3.815
Cu 8.99394 41.9672 3.815
Cu 12.5895 41.9672 3.815
Cu 16.1851 41.9672 3.815
Cu 19.7857 41.9672 3.815
Cu 23.3812 41.9672 3.815
Cu 26.9768 41.9672 3.815
Cu 30.5723 41.9672 3.815
Cu 34.1729 41.9672 3.815
Cu 37.7685 41.9672 3.815
Cu 41.3641 41.9672 3.815
Cu 44.9647 41.9672 3.815
Cu 48.5602 41.9672 3.815
Cu 1.79778 44.5106 3.815
Cu 5.39334 44.5106 3.815
Cu 8.99394 44.5106 3.815
Cu 12.5895 44.5106 3.815
Cu 16.1851 44.5106 3.815
Cu 19.7857 44.5106 3.815
Cu 23.3812 44.5106 3.815
Cu 26.9768 44.5106 3.815
Cu 30.5723 44.5106 3.815
Cu 34.1729 44.5106 3.815
Cu 37.7685 44.5106 3.815
Cu 41.3641 44.5106 3.815
Cu 44.9647 44.5106 3.815
Cu 48.5602 44.5106 3.815
Cu 1.79778 47.0541 3.815
Cu 5.39334 47.0541 3.815
Cu 8.99394 47.0541 3.815
Cu 12.5895 47.0541 3.815
Cu 16.1851 47.0541 3.815
Cu 19.7857 47.0541 3.815
Cu 23.3812 47.0541 3.815
Cu 26.9768 47.0541 3.815
Cu 30.5723 47.0541 3.815
Cu 34.1729 47.0541 3.815
Cu 37.7685 47.0541 3.815
Cu 41.3641 47.0541 3.815
Cu 44.9647 47.0541 3.815
Cu 48.5602 47.0541 3.815
Cu 1.79778 49.5976 3.815
Cu 5.39334 49.5976 3.815
Cu 8.99394 49.5976 3.815
Cu 12.5895 49.5976 3.815
Cu 16.1851 49.5976 3.815
Cu 19.7857 49.5976 3.815
Cu 23.3812 49.5976 3.815
Cu 26.9768 49.5976 3.815
Cu 30.5723 49.5976 3.815
Cu 34.1729 49.5976 3.815
Cu 37.7685 49.5976 3.815
Cu 41.3641 49.5976 3.815
Cu 44.9647 49.5976 3.815
Cu 48.5602 49.5976 3.815
Cu 0 0 5.085
Cu 3.59556 0 5.085
Cu 7.19616 0 5.085
Cu 10.7917 0 5.085
Cu 14.3873 0 5.085
Cu 17.9828 0 5.085
Cu 21.5834 0 5.085
Cu 25.179 0 5.085
Cu 28.7746 0 5.085
Cu 32.3752 0 5.085
Cu 35.9707 0 5.085
Cu 39.5663 0 5.085
Cu 43.1618 0 5.085
Cu 46.7624 0 5.085
Cu 0 2.54347 5.085
Cu 3.59556 2.54347 5.085
Cu 7.19616 2.54347 5.085
Cu 10.7917 2.54347 5.085
Cu 14.3873 2.54347 5.085
Cu 17.9828 2.54347 5.085
Cu 21.5834 2.54347 5.085
Cu 25.179 2.54347 5.085
Cu 28.7746 2.54347 5.085
Cu 32.3752 2.54347 5.085
Cu 35.9707 2.54347 5.085
Cu 39.5663 2.54347 5.085
Cu 43.1618 2.54347 5.085
Cu 46.7624 2.54347 5.085
Cu 0 5.08693 5.085
Cu 3.59556 5.08693 5.085
Cu 7.19616 5.08693 5.085
Cu 10.7917 5.08693 5.085
Cu 14.3873 5.08693 5.085
Cu 17.9828 5.08693 5.085
Cu 21.5834 5.08693 5.085
Cu 25.179 5.08693 5.085
Cu 28.7746 5.08693 5.085
Cu 32.3752 5.08693 5.085
Cu 35.9707 5.08693 5.085
Cu 39.5663 5.08693 5.085
Cu 43.1618 5.08693 5.085
Cu 46.7624 5.08693 5.085
Cu 0 7.6304 5.085
Cu 3.59556 7.6304 5.085
Cu 7.19616 7.6304 5.085
Cu 10.7917 7.6304 5.085
Cu 14.3873 7.6304 5.085
Cu 17.9828 7.6304 5.085
Cu 21.5834 7.6304 5.085
Cu 25.179 7.6304 5.085
Cu 28.7746 7.6304 5.085
Cu 32.3752 7.6304 5.085
Cu 35.9707 7.6304 5.085
Cu 39.5663 7.6304 5.085
Cu 43.1618 7.6304 5.085
Cu 46.7624 7.6304 5.085
Cu 0 10.1739 5.085
Cu 3.59556 10.1739 5.085
Cu 7.19616 10.1739 5.085
Cu 10.7917 10.1739 5.085
Cu 14.3873 10.1739 5.085
Cu 17.9828 10.1739 5.085
Cu 21.5834 10.1739 5.085
Cu 25.179 10.1739 5.085
Cu 28.7746 10.1739 5.085
Cu 32.3752 10.1739 5.085
Cu 35.9707 10.1739 5.085
Cu 39.5663 10.1739 5.085
Cu 43.1618 10.1739 5.085
Cu 46.7624 10.1739 5.085
Cu 0 12.7173 5.085
Cu 3.59556 12.7173 5.085
Cu 7.19616 12.7173 5.085
Cu 10.7917 12.7173 5.085
Cu 14.3873 12.7173 5.085
Cu 17.9828 12.7173 5.085
Cu 21.5834 12.7173 5.085
Cu 25.179 12.7173 5.085
Cu 28.7746 12.7173 5.085
Cu 32.3752 12.7173 5.085
Cu 35.9707 12.7173 5.085
Cu 39.5663 12.7173 5.085
Cu 43.1618 12.7173 5.085
Cu 46.7624 12.7173 5.085
Cu 0 15.2608 5.085
Cu 3.59556 15.2608 5.085
Cu 7.19616 15.2608 5.085
Cu 10.7917 15.2608 5.085
Cu 14.3873 15.2608 5.085
Cu 17.9828 15.2608 5.085
Cu 21.5834 15.2608 5.085
Cu 25.179 15.2608 5.085
Cu 28.7746 15.2608 5.085
Cu 32.3752 15.2608 5.085
Cu 35.9707 15.2608 5.085
Cu 39.5663 15.2608 5.085
Cu 43.1618 15.2608 5.085
Cu 46.7624 15.2608 5.085
Cu 0 17.8043 5.085
Cu 3.59556 17.8043 5.085
Cu 7.19616 17.8043 5.085
Cu 10.7917 17.8043 5.085
Cu 14.3873 17.8043 5.085
Cu 17.9828 17.8043 5.085
Cu 21.5834 17.8043 5.085
Cu 25.179 17.8043 5.085
Cu 28.7746 17.8043 5.085
Cu 32.3752 17.8043 5.085
Cu 35.9707 17.8043 5.085
Cu 39.5663 17.8043 5.085
Cu 43.1618 17.8043 5.085
Cu 46.7624 17.8043 5.085
Cu 0 20.3477 5.085
Cu 3.59556 20.3477 5.085
Cu 7.19616 20.3477 5.085
Cu 10.7917 20.3477 5.085
Cu 14.3873 20.3477 5.085
Cu 17.9828 20.3477 5.085
Cu 21.5834 20.3477 5.085
Cu 25.179 20.3477 5.085
Cu 28.7746 20.3477 5.085
Cu 32.3752 20.3477 5.085
Cu 35.9707 20.3477 5.085
Cu 39.5663 20.3477 5.085
Cu 43.1618 20.3477 5.085
Cu 46.7624 20.3477 5.085
Cu 0 22.8912 5.085
Cu 3.59556 22.8912 5.085
Cu 7.19616 22.8912 5.085
Cu 10.7917 22.8912 5.085
Cu 14.3873 22.8912 5.085
Cu 17.9828 22.8912 5.085
Cu 21.5834 22.8912 5.085
Cu 25.179 22.8912 5.085
Cu 28.7746 22.8912 5.085
Cu 32.3752 22.8912 5.085
Cu 35.9707 22.8912 5.085
Cu 39.5663 22.8912 5.085
Cu 43.1618 22.8912 5.085
Cu 46.7624 22.8912 5.085
Cu 0 25.4347 5.085
Cu 3.59556 25.4347 5.085
Cu 7.19616 25.4347 5.085
Cu 10.7917 25.4347 5.085
Cu 14.3873 25.4347 5.085
Cu 17.9828 25.4347 5.085
Cu 21.5834 25.4347 5.085
Cu 25.179 25.4347 5.085
Cu 28.7746 25.4347 5.085
Cu 32.3752 25.4347 5.085
Cu 35.9707 25.4347 5.085
Cu 39.5663 25.4347 5.085
Cu 43.1618 25.4347 5.085
Cu 46.7624 25.4347 5.085
Cu 0 27.9781 5.085
Cu 3.59556 27.9781 5.085
Cu 7.19616 27.9781 5.085
Cu 10.7917 27.9781 5.085
Cu 14.3873 27.9781 5.085
Cu 17.9828 27.9781 5.085
Cu 21.5834 27.9781 5.085
Cu 25.179 27.9781 5.085
Cu 28.7746 27.9781 5.085
Cu 32.3752 27.9781 5.085
Cu 35.9707 27.9781 5.085